 Gaussian 16, Revision C.01,
 Gaussian 16:  ES64L-G16RevC.01  3-Jul-2019

 -----------------------------------------------------------------
 # freq=(raman,internal) 6-311++g(2d,2p) geom=connectivity pbe1pbe
 -----------------------------------------------------------------

 -------------------
 Title Card Required
 -------------------
 Symbolic Z-matrix:
 Charge =  0 Multiplicity = 1

                         Standard orientation:
 ---------------------------------------------------------------------
 Center     Atomic      Atomic             Coordinates (Angstroms)
 Number     Number       Type             X           Y           Z
 ---------------------------------------------------------------------
      1          6           0        1.458404   -0.325502   -0.000044
      2          6           0        0.456174    0.652436   -0.000284
      3          6           0       -0.864082    0.269134   -0.000277
      4          6           0       -1.203183   -1.099395    0.000004
      5          6           0       -0.210448   -2.062680    0.000086
      6          6           0        1.120025   -1.672292    0.000108
      7          6           0        2.868425    0.073135    0.000043
      8          6           0       -1.691570    2.488564    0.000545
      9          8           0        3.265749    1.215007    0.000033
     10          8           0       -1.941641    1.097021   -0.000708
     11          8           0       -2.497475   -1.464100    0.000281
     12          1           0        0.757139    1.691382   -0.000410
     13          1           0       -0.498146   -3.105547    0.000195
     14          1           0        1.904449   -2.420407    0.000186
     15          1           0        3.585892   -0.773318    0.000088
     16          1           0       -1.135196    2.784994    0.893083
     17          1           0       -1.135362    2.786621   -0.891511
     18          1           0       -2.664834    2.972351    0.001063
     19          1           0       -3.029471   -0.659892   -0.000628
 ---------------------------------------------------------------------

 SCF Done:  E(RPBE1PBE) =  -534.883787893     A.U. after   14 cycles

 The electronic state is 1-A.
 Alpha  occ. eigenvalues --  -19.26688 -19.25324 -19.19439 -10.30696 -10.30419
 Alpha  occ. eigenvalues --  -10.30289 -10.29057 -10.24395 -10.24207 -10.23836
 Alpha  occ. eigenvalues --  -10.23741  -1.14008  -1.10877  -1.07397  -0.90274
 Alpha  occ. eigenvalues --   -0.80741  -0.79656  -0.74845  -0.68091  -0.64926
 Alpha  occ. eigenvalues --   -0.60790  -0.58939  -0.56355  -0.52603  -0.51256
 Alpha  occ. eigenvalues --   -0.48902  -0.47716  -0.47097  -0.45335  -0.45202
 Alpha  occ. eigenvalues --   -0.42690  -0.42078  -0.41849  -0.38399  -0.37917
 Alpha  occ. eigenvalues --   -0.37518  -0.35198  -0.27317  -0.27088  -0.24462
 Alpha virt. eigenvalues --   -0.05913  -0.01235  -0.00636   0.00743   0.00806
 Alpha virt. eigenvalues --    0.02851   0.02946   0.02988   0.04151   0.04911
 Alpha virt. eigenvalues --    0.06063   0.06409   0.07375   0.07465   0.07902

 Mulliken charges:
               1
     1  C    0.457086
     2  C    0.428721
     3  C    0.305450
     4  C   -0.076780
     5  C    0.050385
     6  C   -1.194584
     7  C    0.354072
     8  C   -0.029439
     9  O   -0.402169
    10  O   -0.515423
    11  O   -0.409298
    12  H    0.105063
    13  H    0.134760
    14  H    0.065501
    15  H    0.096332
    16  H    0.103498
    17  H    0.103532
    18  H    0.129230
    19  H    0.294062
 Sum of Mulliken charges =  -0.00000

 Dipole moment (field-independent basis, Debye):
    X=             -2.8408    Y=              0.1227    Z=              0.0001  Tot=              2.8435
 Quadrupole moment (field-independent basis, Debye-Ang):
   XX=            -69.0655   YY=            -58.0606   ZZ=            -65.7683
   XY=            -14.1710   XZ=              0.0013   YZ=              0.0029

  Exact polarizability:     144.756       3.355     123.397       0.000      -0.003      61.254
 Approx polarizability:     220.921      18.463     189.565       0.004      -0.010      92.344

                      1                      2                      3
                      A                      A                      A
 Frequencies --     81.9539               104.2421               152.4075
 Red. masses --      3.6986                 6.3473                 5.3758
 Frc consts  --      0.0146                 0.0406                 0.0736
 IR Inten    --      8.4587                 0.0084                 9.4558
 Raman Activ --      1.1085                 0.2546                 1.6715

                      4                      5                      6
                      A                      A                      A
 Frequencies --    192.2617               203.0538               248.5843
 Red. masses --      2.0175                 2.6297                 4.3589
 Frc consts  --      0.0439                 0.0639                 0.1587
 IR Inten    --      0.4094                 6.6760                 3.0429
 Raman Activ --      1.2935                 1.5267                 0.4467

                      7                      8                      9
                      A                      A                      A
 Frequencies --    260.3204               340.6348               382.1409
 Red. masses --      1.5706                 5.0726                 3.9059
 Frc consts  --      0.0627                 0.3468                 0.3361
 IR Inten    --      0.1918                 2.5612                 1.5160
 Raman Activ --      0.2997                 1.6131                 0.6016

                     10                     11                     12
                      A                      A                      A
 Frequencies --    416.1214               463.3276               506.7722
 Red. masses --      6.4826                 2.8273                 1.1205
 Frc consts  --      0.6614                 0.3576                 0.1695
 IR Inten    --      1.1186                12.1075                86.5367
 Raman Activ --      8.6182                 0.3550                 1.0668

                     13                     14                     15
                      A                      A                      A
 Frequencies --    548.6693               554.1038               597.9321
 Red. masses --      6.5131                 4.0812                 4.0687
 Frc consts  --      1.1552                 0.7383                 0.8571
 IR Inten    --      2.8593                 3.3864                 9.5534
 Raman Activ --      2.3384                 2.5716                 0.0396

                     16                     17                     18
                      A                      A                      A
 Frequencies --    638.4549               749.3948               751.5867
 Red. masses --      7.0812                 5.5429                 3.5264
 Frc consts  --      1.7007                 1.8340                 1.1736
 IR Inten    --     38.3430                50.6916                 0.0510
 Raman Activ --      6.4632                10.0277                 0.5183

                     19                     20                     21
                      A                      A                      A
 Frequencies --    830.7734               835.5785               898.9488
 Red. masses --      4.9244                 1.4680                 1.4151
 Frc consts  --      2.0025                 0.6039                 0.6738
 IR Inten    --      3.0322                33.5158                17.1230
 Raman Activ --     17.2324                 0.5293                 0.2980

                     22                     23                     24
                      A                      A                      A
 Frequencies --    955.0012               983.5448              1027.9640
 Red. masses --      1.3408                 3.3019                 1.7971
 Frc consts  --      0.7205                 1.8819                 1.1188
 IR Inten    --      0.8885                 1.2094                 1.4459
 Raman Activ --      0.1634                 7.0479                 1.3853

                     25                     26                     27
                      A                      A                      A
 Frequencies --   1077.8387              1144.0555              1176.2362
 Red. masses --      3.6455                 1.3538                 1.2771
 Frc consts  --      2.4953                 1.0440                 1.0410
 IR Inten    --     32.6130                30.4675                 0.4441
 Raman Activ --      3.5054                 0.9993                 1.0159

                     28                     29                     30
                      A                      A                      A
 Frequencies --   1182.0667              1211.9399              1234.7086
 Red. masses --      1.9744                 1.5993                 1.5728
 Frc consts  --      1.6254                 1.3840                 1.4127
 IR Inten    --    118.1492                68.0128                58.6512
 Raman Activ --      6.0980                17.5474                 4.3395

                     31                     32                     33
                      A                      A                      A
 Frequencies --   1289.7227              1306.5148              1340.7321
 Red. masses --      2.3571                 2.1280                 4.2193
 Frc consts  --      2.3101                 2.1401                 4.4686
 IR Inten    --     63.8669               160.0084               244.8579
 Raman Activ --     14.6336                16.9139                11.8758

                     34                     35                     36
                      A                      A                      A
 Frequencies --   1411.2894              1450.6329              1475.2952
 Red. masses --      1.3488                 2.3899                 1.5291
 Frc consts  --      1.5829                 2.9631                 1.9608
 IR Inten    --     23.0648                35.6790                47.5211
 Raman Activ --      4.3532                11.8758                 3.0645

                     37                     38                     39
                      A                      A                      A
 Frequencies --   1490.6551              1496.9255              1508.3742
 Red. masses --      1.0421                 1.6399                 1.3973
 Frc consts  --      1.3644                 2.1650                 1.8731
 IR Inten    --     11.3040                14.1398               110.9810
 Raman Activ --      8.0872                18.1273                 9.1975

                     40                     41                     42
                      A                      A                      A
 Frequencies --   1563.1766              1661.9482              1667.9270
 Red. masses --      4.0464                 6.6824                 6.3051
 Frc consts  --      5.8256                10.8747                10.3347
 IR Inten    --    188.5231               166.0301                27.0791
 Raman Activ --      5.1880               155.7486                22.5603

                     43                     44                     45
                      A                      A                      A
 Frequencies --   1785.1619              2914.2322              3043.8588
 Red. masses --     10.1943                 1.0836                 1.0333
 Frc consts  --     19.1410                 5.4223                 5.6405
 IR Inten    --    319.9541               112.4075                35.7484
 Raman Activ --    164.4088               166.2492               151.4742

                     46                     47                     48
                      A                      A                      A
 Frequencies --   3112.7702              3172.0163              3192.9064
 Red. masses --      1.1064                 1.1016                 1.0892
 Frc consts  --      6.3163                 6.5305                 6.5424
 IR Inten    --     20.4264                13.0131                 3.8945
 Raman Activ --     39.7219               103.6250                65.7938

                     49                     50                     51
                      A                      A                      A
 Frequencies --   3222.3304              3226.5090              3811.7833
 Red. masses --      1.0937                 1.0905                 1.0648
 Frc consts  --      6.6912                 6.6886                 9.1153
 IR Inten    --      2.2519                 4.8448               136.5168
 Raman Activ --    127.7429                65.6839                88.1821

 - Thermochemistry -
 -------------------
 Temperature   298.150 Kelvin.  Pressure   1.00000 Atm.
 Atom     1 has atomic number  6 and mass  12.00000

 Molecular mass:   152.04734 amu.
 Principal axes and moments of inertia in atomic units:
                           1         2         3
     Eigenvalues --  1080.215112045.208793113.96173
           X            0.99808  -0.06188  -0.00000
           Y            0.06188   0.99808   0.00002
           Z            0.00000  -0.00002   1.00000
 This molecule is an asymmetric top.
 Rotational symmetry number  1.
 Warning -- assumption of classical behavior for rotation
           may cause significant error
 Rotational temperatures (Kelvin)      0.08018     0.04235     0.02781
 Rotational constants (GHZ):           1.67072     0.88242     0.57956
 Zero-point vibrational energy     388160.6 (Joules/Mol)
                                   92.77260 (Kcal/Mol)
 Warning -- explicit consideration of  15 degrees of freedom as
           vibrations may cause significant error
 Vibrational temperatures:    117.91   149.98   219.28   276.62   292.15
          (Kelvin)            357.66   374.54   490.10   549.82   598.71
                              666.63   729.13   789.41   797.23   860.29
                              918.59  1078.21  1081.37  1195.30  1202.21
                             1293.39  1374.03  1415.10  1479.01  1550.77
                             1646.04  1692.34  1700.73  1743.71  1776.47
                             1855.62  1879.78  1929.01  2030.53  2087.14
                             2122.62  2144.72  2153.74  2170.21  2249.06
                             2391.17  2399.77  2568.45  4192.93  4379.43
                             4478.58  4563.82  4593.88  4636.21  4642.23
                             5484.31

 Zero-point correction=                           0.147843 (Hartree/Particle)
 Thermal correction to Energy=                    0.157731
 Thermal correction to Enthalpy=                  0.158675
 Thermal correction to Gibbs Free Energy=         0.112547
 Sum of electronic and zero-point Energies=           -534.735945
 Sum of electronic and thermal Energies=              -534.726057
 Sum of electronic and thermal Enthalpies=            -534.725112
 Sum of electronic and thermal Free Energies=         -534.771241

                     E (Thermal)             CV                S
                      KCal/Mol        Cal/Mol-Kelvin    Cal/Mol-Kelvin
 Total                   98.978             37.130             97.085
 Electronic               0.000              0.000              0.000
 Translational            0.889              2.981             40.967
 Rotational               0.889              2.981             30.310
 Vibrational             97.200             31.168             25.808
 Vibration     1          0.600              1.962              3.844
 Vibration     2          0.605              1.946              3.373
 Vibration     3          0.619              1.900              2.642
 Vibration     4          0.634              1.851              2.206
 Vibration     5          0.639              1.836              2.105
 Vibration     6          0.662              1.765              1.741
 Vibration     7          0.668              1.745              1.660
 Vibration     8          0.720              1.594              1.209
 Vibration     9          0.752              1.508              1.031
 Vibration    10          0.779              1.435              0.905
 Vibration    11          0.821              1.331              0.756
 Vibration    12          0.862              1.235              0.641
 Vibration    13          0.904              1.143              0.547
 Vibration    14          0.910              1.131              0.536
 Vibration    15          0.956              1.036              0.453

 Optimization completed.
    -- Stationary point found.
 Normal termination of Gaussian 16 at Mon Jan 29 12:27:44 2024.
